 Gaussian 16, Revision A.03,
 Gaussian 16:  ES64L-G16RevA.03 25-Dec-2016

 ------------------------------------------------------------------
 # m062x/def2tzvp empiricaldispersion=gd3 opt freq guess=mix nosymm
 ------------------------------------------------------------------

 -------------------
 Title Card Required
 -------------------
 Symbolic Z-matrix:
 Charge =  0 Multiplicity = 3

 SCF Done:  E(UM062X) =  -150.249323827     A.U. after   25 cycles
 SCF Done:  E(UM062X) =  -150.305785641     A.U. after   11 cycles
 SCF Done:  E(UM062X) =  -150.326942512     A.U. after   12 cycles
 SCF Done:  E(UM062X) =  -150.327182635     A.U. after    8 cycles
 SCF Done:  E(UM062X) =  -150.327182724     A.U. after    5 cycles
 Optimization completed.
    -- Stationary point found.
 Normal termination of Gaussian 16 at Wed Aug 28 14:20:03 2019.

 --------------------------------------------------------------------
 #N Geom=AllCheck Guess=TCheck SCRF=Check GenChk UM062X/def2TZVP Freq
 --------------------------------------------------------------------

 Structure from the checkpoint file:  "/tmp/Gau-258330.chk"
 -------------------
 Title Card Required
 -------------------
 Charge =  0 Multiplicity = 3

                          Input orientation:
 ---------------------------------------------------------------------
 Center     Atomic      Atomic             Coordinates (Angstroms)
 Number     Number       Type             X           Y           Z
 ---------------------------------------------------------------------
      1          8           0       -3.741920   -0.006950    0.000000
      2          8           0       -2.576771   -0.239980    0.000000
 ---------------------------------------------------------------------

 SCF Done:  E(UM062X) =  -150.327182724     A.U. after    1 cycles

 Alpha  occ. eigenvalues --  -19.78764 -19.78724  -1.46317  -0.96049  -0.67805
 Alpha  occ. eigenvalues --   -0.67805  -0.64782  -0.39556  -0.39556
 Alpha virt. eigenvalues --    0.24763   0.37074   0.41503   0.41503   0.47383
 Alpha virt. eigenvalues --    0.49861   0.53262   0.53262   0.78557   1.26109
 Alpha virt. eigenvalues --    1.26110   1.35424   1.35424   1.67050   1.67051

  Beta  occ. eigenvalues --  -19.76319 -19.76243  -1.39187  -0.85287  -0.59487
  Beta  occ. eigenvalues --   -0.54399  -0.54399
  Beta virt. eigenvalues --   -0.04844  -0.04844   0.26421   0.36982   0.43161
  Beta virt. eigenvalues --    0.43161   0.46341   0.52613   0.54973   0.54973
  Beta virt. eigenvalues --    0.79076   1.28480   1.28480   1.39025   1.39025

 Mulliken charges and spin densities:
               1          2
     1  O   -0.000000   1.000000
     2  O    0.000000   1.000000
 Sum of Mulliken charges =  -0.00000   2.00000

 Dipole moment (field-independent basis, Debye):
    X=              0.0000    Y=             -0.0000    Z=              0.0000  Tot=              0.0000
 Quadrupole moment (field-independent basis, Debye-Ang):
   XX=            -10.4996   YY=             -9.9995   ZZ=             -9.9787
   XY=              0.1042   XZ=             -0.0000   YZ=              0.0000

  Exact polarizability:  13.647  -1.641   5.772   0.000  -0.000   5.444
 Approx polarizability:  17.541  -2.331   6.351   0.000  -0.000   5.885

                      1
                      A
 Frequencies --   1766.5598
 Red. masses --     15.9949
 Frc consts  --     29.4096
 IR Inten    --      0.0000

 - Thermochemistry -
 -------------------
 Temperature   298.150 Kelvin.  Pressure   1.00000 Atm.
 Atom     1 has atomic number  8 and mass  15.99491

 Molecular mass:    31.98983 amu.
 Principal axes and moments of inertia in atomic units:
                           1         2         3
     Eigenvalues --    -0.00000  40.32232  40.32232
           X            0.98058   0.19612   0.00000
           Y           -0.19612   0.98058   0.00000
           Z           -0.00000   0.00000   1.00000
 This molecule is a prolate symmetric top.
 Rotational symmetry number  2.
 Rotational temperature (Kelvin)      2.14804
 Rotational constant (GHZ):          44.757868
 Zero-point vibrational energy      10566.4 (Joules/Mol)
                                    2.52542 (Kcal/Mol)
 Vibrational temperatures:   2541.69
          (Kelvin)

 Zero-point correction=                           0.004025 (Hartree/Particle)
 Thermal correction to Energy=                    0.006387
 Thermal correction to Enthalpy=                  0.007331
 Thermal correction to Gibbs Free Energy=        -0.015913
 Sum of electronic and zero-point Energies=           -150.323158
 Sum of electronic and thermal Energies=              -150.320796
 Sum of electronic and thermal Enthalpies=            -150.319852
 Sum of electronic and thermal Free Energies=         -150.343096

                     E (Thermal)             CV                S
                      KCal/Mol        Cal/Mol-Kelvin    Cal/Mol-Kelvin
 Total                    4.008              4.997             48.920
 Electronic               0.000              0.000              2.183
 Translational            0.889              2.981             36.321
 Rotational               0.592              1.987             10.413
 Vibrational              2.526              0.029              0.004

 Optimization completed.
    -- Stationary point found.
 Normal termination of Gaussian 16 at Wed Aug 28 14:20:09 2019.
