 Gaussian 16, Revision A.03,
 Gaussian 16:  ES64L-G16RevA.03 25-Dec-2016

 ------------------------------------------------------------------
 # m062x/def2tzvp empiricaldispersion=gd3 guess=mix nosymm opt freq
 ------------------------------------------------------------------

 -------------------
 Title Card Required
 -------------------
 Symbolic Z-matrix:
 Charge =  0 Multiplicity = 1

 SCF Done:  E(RM062X) =  -225.387946215     A.U. after   22 cycles
 SCF Done:  E(RM062X) =  -225.406087563     A.U. after   14 cycles
 SCF Done:  E(RM062X) =  -225.406676845     A.U. after   13 cycles
 SCF Done:  E(RM062X) =  -225.408183001     A.U. after   12 cycles
 SCF Done:  E(RM062X) =  -225.408184939     A.U. after    9 cycles
 Optimization completed.
    -- Stationary point found.
 Normal termination of Gaussian 16 at Thu Aug 29 19:06:21 2019.

 --------------------------------------------------------------------
 #N Geom=AllCheck Guess=TCheck SCRF=Check GenChk RM062X/def2TZVP Freq
 --------------------------------------------------------------------

 Structure from the checkpoint file:  "/tmp/Gau-645577.chk"
 -------------------
 Title Card Required
 -------------------
 Charge =  0 Multiplicity = 1

                          Input orientation:
 ---------------------------------------------------------------------
 Center     Atomic      Atomic             Coordinates (Angstroms)
 Number     Number       Type             X           Y           Z
 ---------------------------------------------------------------------
      1          8           0       -4.003369    0.832743    0.000000
      2          8           0       -4.502308    1.956933    0.000000
      3          8           0       -2.777111    0.737684    0.000000
 ---------------------------------------------------------------------

 SCF Done:  E(RM062X) =  -225.408184939     A.U. after    1 cycles

 Alpha  occ. eigenvalues --  -19.95032 -19.75240 -19.75236  -1.54293  -1.24656
 Alpha  occ. eigenvalues --   -0.89294  -0.71167  -0.70983  -0.68887  -0.44247
 Alpha  occ. eigenvalues --   -0.43016  -0.42669
 Alpha virt. eigenvalues --   -0.12885   0.17226   0.24853   0.33300   0.39484
 Alpha virt. eigenvalues --    0.40900   0.43121   0.48203   0.48649   0.50756
 Alpha virt. eigenvalues --    0.51820   0.54130   0.59002   0.73900   0.78232

 Mulliken charges:
               1
     1  O    0.329737
     2  O   -0.164858
     3  O   -0.164879
 Sum of Mulliken charges =  -0.00000

 Dipole moment (field-independent basis, Debye):
    X=             -0.4349    Y=             -0.6154    Z=              0.0000  Tot=              0.7535
 Quadrupole moment (field-independent basis, Debye-Ang):
   XX=            -13.6146   YY=            -17.8166   ZZ=            -14.5402
   XY=              2.5320   XZ=             -0.0000   YZ=              0.0000

  Exact polarizability:  22.521  -8.803  16.285  -0.000   0.000   8.012
 Approx polarizability:  37.201 -17.641  24.707   0.000  -0.000   9.645

                      1                      2                      3
                      A                      A                      A
 Frequencies --    794.2529              1374.1263              1375.1375
 Red. masses --     15.9949                15.9949                15.9949
 Frc consts  --      5.9450                17.7945                17.8207
 IR Inten    --      8.8107               337.0736                 0.3780

 - Thermochemistry -
 -------------------
 Temperature   298.150 Kelvin.  Pressure   1.00000 Atm.
 Atom     1 has atomic number  8 and mass  15.99491

 Molecular mass:    47.98474 amu.
 Principal axes and moments of inertia in atomic units:
                           1         2         3
     Eigenvalues --    15.11848 127.45715 142.57563
           X            0.81664   0.57715   0.00000
           Y           -0.57715   0.81664   0.00000
           Z           -0.00000   0.00000   1.00000
 This molecule is an asymmetric top.
 Rotational symmetry number  1.
 Rotational temperatures (Kelvin)      5.72901     0.67955     0.60749
 Rotational constants (GHZ):         119.37322    14.15959    12.65813
 Zero-point vibrational energy      21194.9 (Joules/Mol)
                                    5.06571 (Kcal/Mol)
 Vibrational temperatures:   1142.75  1977.06  1978.52
          (Kelvin)

 Zero-point correction=                           0.008073 (Hartree/Particle)
 Thermal correction to Energy=                    0.011002
 Thermal correction to Enthalpy=                  0.011946
 Thermal correction to Gibbs Free Energy=        -0.015625
 Sum of electronic and zero-point Energies=           -225.400112
 Sum of electronic and thermal Energies=              -225.397183
 Sum of electronic and thermal Enthalpies=            -225.396239
 Sum of electronic and thermal Free Energies=         -225.423810

                     E (Thermal)             CV                S
                      KCal/Mol        Cal/Mol-Kelvin    Cal/Mol-Kelvin
 Total                    6.904              6.853             58.028
 Electronic               0.000              0.000              0.000
 Translational            0.889              2.981             37.529
 Rotational               0.889              2.981             20.246
 Vibrational              5.126              0.891              0.252

 Optimization completed.
    -- Stationary point found.
 Normal termination of Gaussian 16 at Thu Aug 29 19:06:29 2019.
